# vtk DataFile Version 2.0
Unstructured Grid Example
ASCII
DATASET UNSTRUCTURED_GRID

Points 16 float0.100000001 0.00499999989 0
0.0546918176 0.00499999989 0
0.0226540919 0.00499999989 0
0.0 0.00499999989 0
0.100000001 -0.0403081849 0
0.0623899326 -0.0326100662 0
0.0303522106 -0.0253522098 0
0.0 -0.0176540911 0
0.100000001 -0.072345905 0
0.069647789 -0.0646477863 0
0.0376100652 -0.0573899336 0
0.0 -0.0496918149 0
0.100000001 -0.0949999988 0
0.0773459077 -0.0949999988 0
0.0453081839 -0.0949999988 0
0.0 -0.0949999988 0

Cels 9 45
4 1 2 6 5 
4 2 3 7 6 
4 3 4 8 7 
4 5 6 10 9 
4 6 7 11 10 
4 7 8 12 11 
4 9 10 14 13 
4 10 11 15 14 
4 11 12 16 15 

CELL_TYPES 9
9
9
9
9
9
9
9
9
9

POINT_DATA 16
SCALARS Temp float 1
LOOKUP_TABLE default349.2044969017929
231.51138832991327
270.0403370121654
374.6682653076116
231.51138675074665
95.15907045805811
122.21060413166973
270.04033679202405
270.04032921289394
122.21059715097458
95.15907532132914
231.51138900435518
374.668262164306
270.04033005123637
231.51138887392742
349.20449888337595
