# vtk DataFile Version 2.0
Unstructured Grid Example
ASCII
DATASET UNSTRUCTURED_GRID

POINTS 16 float
0.100000001 0.00499999989 0
0.0546918176 0.00499999989 0
0.0226540919 0.00499999989 0
0.0 0.00499999989 0
0.100000001 -0.0403081849 0
0.0623899326 -0.0326100662 0
0.0303522106 -0.0253522098 0
0.0 -0.0176540911 0
0.100000001 -0.072345905 0
0.069647789 -0.0646477863 0
0.0376100652 -0.0573899336 0
0.0 -0.0496918149 0
0.100000001 -0.0949999988 0
0.0773459077 -0.0949999988 0
0.0453081839 -0.0949999988 0
0.0 -0.0949999988 0

CELLS 9 45 4 0 1 5 4 
4 1 2 6 5 
4 2 3 7 6 
4 4 5 9 8 
4 5 6 10 9 
4 6 7 11 10 
4 8 9 13 12 
4 9 10 14 13 
4 10 11 15 14 

CELL_TYPES 9
9
9
9
9
9
9
9
9
9

POINT_DATA 16
SCALARS Temp float 1
LOOKUP_TABLE default
577.6941047523269
409.8863817318463
463.404293593501
586.9978492792006
409.88638172958485
220.16445575098777
262.50269875168874
463.40429612685165
463.4042868487162
262.50268542684296
220.1644636968442
409.8863837744745
586.9978489952257
463.4042878724164
409.88638201270146
577.6941054009155
