# vtk DataFile Version 2.0
Unstructured Grid Example
ASCII
DATASET UNSTRUCTURED_GRID

POINTS 16 float
0.100000001 0.00499999989 0
0.0546918176 0.00499999989 0
0.0226540919 0.00499999989 0
0.0 0.00499999989 0
0.100000001 -0.0403081849 0
0.0623899326 -0.0326100662 0
0.0303522106 -0.0253522098 0
0.0 -0.0176540911 0
0.100000001 -0.072345905 0
0.069647789 -0.0646477863 0
0.0376100652 -0.0573899336 0
0.0 -0.0496918149 0
0.100000001 -0.0949999988 0
0.0773459077 -0.0949999988 0
0.0453081839 -0.0949999988 0
0.0 -0.0949999988 0

CELLS 9 45 4 0 1 5 4 
4 1 2 6 5 
4 2 3 7 6 
4 4 5 9 8 
4 5 6 10 9 
4 6 7 11 10 
4 8 9 13 12 
4 9 10 14 13 
4 10 11 15 14 

CELL_TYPES 9
9
9
9
9
9
9
9
9
9

POINT_DATA 16
SCALARS Temp float 1
LOOKUP_TABLE default
741.0414132670709
599.1107693134485
642.3003783654325
741.2191094549129
599.1107700772321
440.5601435998321
476.26103613364256
642.300381256186
642.3003738755045
476.26102428970836
440.5601504619534
599.1107714729055
741.2191101272798
642.3003745281596
599.1107692792416
741.0414126798331
